t 1 /NodeList/1/$ns3::Ipv4L3Protocol/Tx(2) ns3::Ipv4Header (tos 0x0 DSCP Default ECN Not-ECT ttl 64 id 0 protocol 6 offset (bytes) 0 flags [none] length: 56 172.16.1.1 > 10.1.3.2) ns3::TcpHeader (49153 > 9 [SYN] Seq=0 Ack=0 Win=65535 ns3::TcpOptionTS(1000;0) ns3::TcpOptionWinScale(2) ns3::TcpOptionSackPermitted([sack_perm]) ns3::TcpOptionEnd(EOL))
+ 1 /NodeList/1/DeviceList/1/$ns3::PointToPointNetDevice/TxQueue/Enqueue ns3::PppHeader (Point-to-Point Protocol: IP (0x0021)) ns3::Ipv4Header (tos 0x0 DSCP Default ECN Not-ECT ttl 64 id 0 protocol 6 offset (bytes) 0 flags [none] length: 56 172.16.1.1 > 10.1.3.2) ns3::TcpHeader (49153 > 9 [SYN] Seq=0 Ack=0 Win=65535 ns3::TcpOptionTS(1000;0) ns3::TcpOptionWinScale(2) ns3::TcpOptionSackPermitted([sack_perm]) ns3::TcpOptionEnd(EOL))
- 1 /NodeList/1/DeviceList/1/$ns3::PointToPointNetDevice/TxQueue/Dequeue ns3::PppHeader (Point-to-Point Protocol: IP (0x0021)) ns3::Ipv4Header (tos 0x0 DSCP Default ECN Not-ECT ttl 64 id 0 protocol 6 offset (bytes) 0 flags [none] length: 56 172.16.1.1 > 10.1.3.2) ns3::TcpHeader (49153 > 9 [SYN] Seq=0 Ack=0 Win=65535 ns3::TcpOptionTS(1000;0) ns3::TcpOptionWinScale(2) ns3::TcpOptionSackPermitted([sack_perm]) ns3::TcpOptionEnd(EOL))
r 1.00209 /NodeList/6/DeviceList/1/$ns3::PointToPointNetDevice/MacRx ns3::PppHeader (Point-to-Point Protocol: IP (0x0021)) ns3::Ipv4Header (tos 0x0 DSCP Default ECN Not-ECT ttl 64 id 0 protocol 6 offset (bytes) 0 flags [none] length: 56 172.16.1.1 > 10.1.3.2) ns3::TcpHeader (49153 > 9 [SYN] Seq=0 Ack=0 Win=65535 ns3::TcpOptionTS(1000;0) ns3::TcpOptionWinScale(2) ns3::TcpOptionSackPermitted([sack_perm]) ns3::TcpOptionEnd(EOL))
r 1.00209 /NodeList/6/$ns3::Ipv4L3Protocol/Rx(2) ns3::Ipv4Header (tos 0x0 DSCP Default ECN Not-ECT ttl 64 id 0 protocol 6 offset (bytes) 0 flags [none] length: 56 172.16.1.1 > 10.1.3.2) ns3::TcpHeader (49153 > 9 [SYN] Seq=0 Ack=0 Win=65535 ns3::TcpOptionTS(1000;0) ns3::TcpOptionWinScale(2) ns3::TcpOptionSackPermitted([sack_perm]) ns3::TcpOptionEnd(EOL))
t 1.00209 /NodeList/6/$ns3::Ipv4L3Protocol/Tx(2) ns3::Ipv4Header (tos 0x0 DSCP Default ECN Not-ECT ttl 64 id 0 protocol 6 offset (bytes) 0 flags [none] length: 56 10.1.3.2 > 172.16.1.1) ns3::TcpHeader (9 > 49153 [SYN|ACK] Seq=0 Ack=1 Win=65535 ns3::TcpOptionTS(1002;1000) ns3::TcpOptionWinScale(2) ns3::TcpOptionSackPermitted([sack_perm]) ns3::TcpOptionEnd(EOL))
+ 1.00209 /NodeList/6/DeviceList/1/$ns3::PointToPointNetDevice/TxQueue/Enqueue ns3::PppHeader (Point-to-Point Protocol: IP (0x0021)) ns3::Ipv4Header (tos 0x0 DSCP Default ECN Not-ECT ttl 64 id 0 protocol 6 offset (bytes) 0 flags [none] length: 56 10.1.3.2 > 172.16.1.1) ns3::TcpHeader (9 > 49153 [SYN|ACK] Seq=0 Ack=1 Win=65535 ns3::TcpOptionTS(1002;1000) ns3::TcpOptionWinScale(2) ns3::TcpOptionSackPermitted([sack_perm]) ns3::TcpOptionEnd(EOL))
- 1.00209 /NodeList/6/DeviceList/1/$ns3::PointToPointNetDevice/TxQueue/Dequeue ns3::PppHeader (Point-to-Point Protocol: IP (0x0021)) ns3::Ipv4Header (tos 0x0 DSCP Default ECN Not-ECT ttl 64 id 0 protocol 6 offset (bytes) 0 flags [none] length: 56 10.1.3.2 > 172.16.1.1) ns3::TcpHeader (9 > 49153 [SYN|ACK] Seq=0 Ack=1 Win=65535 ns3::TcpOptionTS(1002;1000) ns3::TcpOptionWinScale(2) ns3::TcpOptionSackPermitted([sack_perm]) ns3::TcpOptionEnd(EOL))
r 1.00419 /NodeList/1/DeviceList/1/$ns3::PointToPointNetDevice/MacRx ns3::PppHeader (Point-to-Point Protocol: IP (0x0021)) ns3::Ipv4Header (tos 0x0 DSCP Default ECN Not-ECT ttl 64 id 0 protocol 6 offset (bytes) 0 flags [none] length: 56 10.1.3.2 > 172.16.1.1) ns3::TcpHeader (9 > 49153 [SYN|ACK] Seq=0 Ack=1 Win=65535 ns3::TcpOptionTS(1002;1000) ns3::TcpOptionWinScale(2) ns3::TcpOptionSackPermitted([sack_perm]) ns3::TcpOptionEnd(EOL))
r 1.00419 /NodeList/1/$ns3::Ipv4L3Protocol/Rx(2) ns3::Ipv4Header (tos 0x0 DSCP Default ECN Not-ECT ttl 64 id 0 protocol 6 offset (bytes) 0 flags [none] length: 56 10.1.3.2 > 172.16.1.1) ns3::TcpHeader (9 > 49153 [SYN|ACK] Seq=0 Ack=1 Win=65535 ns3::TcpOptionTS(1002;1000) ns3::TcpOptionWinScale(2) ns3::TcpOptionSackPermitted([sack_perm]) ns3::TcpOptionEnd(EOL))
t 1.00419 /NodeList/1/$ns3::Ipv4L3Protocol/Tx(2) ns3::Ipv4Header (tos 0x0 DSCP Default ECN Not-ECT ttl 64 id 1 protocol 6 offset (bytes) 0 flags [none] length: 52 172.16.1.1 > 10.1.3.2) ns3::TcpHeader (49153 > 9 [ACK] Seq=1 Ack=1 Win=32768 ns3::TcpOptionTS(1004;1002) ns3::TcpOptionEnd(EOL))
+ 1.00419 /NodeList/1/DeviceList/1/$ns3::PointToPointNetDevice/TxQueue/Enqueue ns3::PppHeader (Point-to-Point Protocol: IP (0x0021)) ns3::Ipv4Header (tos 0x0 DSCP Default ECN Not-ECT ttl 64 id 1 protocol 6 offset (bytes) 0 flags [none] length: 52 172.16.1.1 > 10.1.3.2) ns3::TcpHeader (49153 > 9 [ACK] Seq=1 Ack=1 Win=32768 ns3::TcpOptionTS(1004;1002) ns3::TcpOptionEnd(EOL))
- 1.00419 /NodeList/1/DeviceList/1/$ns3::PointToPointNetDevice/TxQueue/Dequeue ns3::PppHeader (Point-to-Point Protocol: IP (0x0021)) ns3::Ipv4Header (tos 0x0 DSCP Default ECN Not-ECT ttl 64 id 1 protocol 6 offset (bytes) 0 flags [none] length: 52 172.16.1.1 > 10.1.3.2) ns3::TcpHeader (49153 > 9 [ACK] Seq=1 Ack=1 Win=32768 ns3::TcpOptionTS(1004;1002) ns3::TcpOptionEnd(EOL))
r 1.00627 /NodeList/6/DeviceList/1/$ns3::PointToPointNetDevice/MacRx ns3::PppHeader (Point-to-Point Protocol: IP (0x0021)) ns3::Ipv4Header (tos 0x0 DSCP Default ECN Not-ECT ttl 64 id 1 protocol 6 offset (bytes) 0 flags [none] length: 52 172.16.1.1 > 10.1.3.2) ns3::TcpHeader (49153 > 9 [ACK] Seq=1 Ack=1 Win=32768 ns3::TcpOptionTS(1004;1002) ns3::TcpOptionEnd(EOL))
r 1.00627 /NodeList/6/$ns3::Ipv4L3Protocol/Rx(2) ns3::Ipv4Header (tos 0x0 DSCP Default ECN Not-ECT ttl 64 id 1 protocol 6 offset (bytes) 0 flags [none] length: 52 172.16.1.1 > 10.1.3.2) ns3::TcpHeader (49153 > 9 [ACK] Seq=1 Ack=1 Win=32768 ns3::TcpOptionTS(1004;1002) ns3::TcpOptionEnd(EOL))
t 1.2 /NodeList/1/$ns3::Ipv4L3Protocol/Tx(2) ns3::Ipv4Header (tos 0x0 DSCP Default ECN Not-ECT ttl 64 id 2 protocol 6 offset (bytes) 0 flags [none] length: 102 172.16.1.1 > 10.1.3.2) ns3::TcpHeader (49153 > 9 [ACK] Seq=1 Ack=1 Win=32768 ns3::TcpOptionTS(1200;1002) ns3::TcpOptionEnd(EOL)) Payload (size=50)
+ 1.2 /NodeList/1/DeviceList/1/$ns3::PointToPointNetDevice/TxQueue/Enqueue ns3::PppHeader (Point-to-Point Protocol: IP (0x0021)) ns3::Ipv4Header (tos 0x0 DSCP Default ECN Not-ECT ttl 64 id 2 protocol 6 offset (bytes) 0 flags [none] length: 102 172.16.1.1 > 10.1.3.2) ns3::TcpHeader (49153 > 9 [ACK] Seq=1 Ack=1 Win=32768 ns3::TcpOptionTS(1200;1002) ns3::TcpOptionEnd(EOL)) Payload (size=50)
- 1.2 /NodeList/1/DeviceList/1/$ns3::PointToPointNetDevice/TxQueue/Dequeue ns3::PppHeader (Point-to-Point Protocol: IP (0x0021)) ns3::Ipv4Header (tos 0x0 DSCP Default ECN Not-ECT ttl 64 id 2 protocol 6 offset (bytes) 0 flags [none] length: 102 172.16.1.1 > 10.1.3.2) ns3::TcpHeader (49153 > 9 [ACK] Seq=1 Ack=1 Win=32768 ns3::TcpOptionTS(1200;1002) ns3::TcpOptionEnd(EOL)) Payload (size=50)
r 1.20217 /NodeList/6/DeviceList/1/$ns3::PointToPointNetDevice/MacRx ns3::PppHeader (Point-to-Point Protocol: IP (0x0021)) ns3::Ipv4Header (tos 0x0 DSCP Default ECN Not-ECT ttl 64 id 2 protocol 6 offset (bytes) 0 flags [none] length: 102 172.16.1.1 > 10.1.3.2) ns3::TcpHeader (49153 > 9 [ACK] Seq=1 Ack=1 Win=32768 ns3::TcpOptionTS(1200;1002) ns3::TcpOptionEnd(EOL)) Payload (size=50)
r 1.20217 /NodeList/6/$ns3::Ipv4L3Protocol/Rx(2) ns3::Ipv4Header (tos 0x0 DSCP Default ECN Not-ECT ttl 64 id 2 protocol 6 offset (bytes) 0 flags [none] length: 102 172.16.1.1 > 10.1.3.2) ns3::TcpHeader (49153 > 9 [ACK] Seq=1 Ack=1 Win=32768 ns3::TcpOptionTS(1200;1002) ns3::TcpOptionEnd(EOL)) Payload (size=50)
t 1.20217 /NodeList/6/$ns3::Ipv4L3Protocol/Tx(2) ns3::Ipv4Header (tos 0x0 DSCP Default ECN Not-ECT ttl 64 id 1 protocol 6 offset (bytes) 0 flags [none] length: 52 10.1.3.2 > 172.16.1.1) ns3::TcpHeader (9 > 49153 [ACK] Seq=1 Ack=51 Win=32768 ns3::TcpOptionTS(1202;1200) ns3::TcpOptionEnd(EOL))
+ 1.20217 /NodeList/6/DeviceList/1/$ns3::PointToPointNetDevice/TxQueue/Enqueue ns3::PppHeader (Point-to-Point Protocol: IP (0x0021)) ns3::Ipv4Header (tos 0x0 DSCP Default ECN Not-ECT ttl 64 id 1 protocol 6 offset (bytes) 0 flags [none] length: 52 10.1.3.2 > 172.16.1.1) ns3::TcpHeader (9 > 49153 [ACK] Seq=1 Ack=51 Win=32768 ns3::TcpOptionTS(1202;1200) ns3::TcpOptionEnd(EOL))
- 1.20217 /NodeList/6/DeviceList/1/$ns3::PointToPointNetDevice/TxQueue/Dequeue ns3::PppHeader (Point-to-Point Protocol: IP (0x0021)) ns3::Ipv4Header (tos 0x0 DSCP Default ECN Not-ECT ttl 64 id 1 protocol 6 offset (bytes) 0 flags [none] length: 52 10.1.3.2 > 172.16.1.1) ns3::TcpHeader (9 > 49153 [ACK] Seq=1 Ack=51 Win=32768 ns3::TcpOptionTS(1202;1200) ns3::TcpOptionEnd(EOL))
r 1.20425 /NodeList/1/DeviceList/1/$ns3::PointToPointNetDevice/MacRx ns3::PppHeader (Point-to-Point Protocol: IP (0x0021)) ns3::Ipv4Header (tos 0x0 DSCP Default ECN Not-ECT ttl 64 id 1 protocol 6 offset (bytes) 0 flags [none] length: 52 10.1.3.2 > 172.16.1.1) ns3::TcpHeader (9 > 49153 [ACK] Seq=1 Ack=51 Win=32768 ns3::TcpOptionTS(1202;1200) ns3::TcpOptionEnd(EOL))
r 1.20425 /NodeList/1/$ns3::Ipv4L3Protocol/Rx(2) ns3::Ipv4Header (tos 0x0 DSCP Default ECN Not-ECT ttl 64 id 1 protocol 6 offset (bytes) 0 flags [none] length: 52 10.1.3.2 > 172.16.1.1) ns3::TcpHeader (9 > 49153 [ACK] Seq=1 Ack=51 Win=32768 ns3::TcpOptionTS(1202;1200) ns3::TcpOptionEnd(EOL))
t 1.4 /NodeList/1/$ns3::Ipv4L3Protocol/Tx(2) ns3::Ipv4Header (tos 0x0 DSCP Default ECN Not-ECT ttl 64 id 3 protocol 6 offset (bytes) 0 flags [none] length: 102 172.16.1.1 > 10.1.3.2) ns3::TcpHeader (49153 > 9 [ACK] Seq=51 Ack=1 Win=32768 ns3::TcpOptionTS(1400;1202) ns3::TcpOptionEnd(EOL)) Payload (size=50)
+ 1.4 /NodeList/1/DeviceList/1/$ns3::PointToPointNetDevice/TxQueue/Enqueue ns3::PppHeader (Point-to-Point Protocol: IP (0x0021)) ns3::Ipv4Header (tos 0x0 DSCP Default ECN Not-ECT ttl 64 id 3 protocol 6 offset (bytes) 0 flags [none] length: 102 172.16.1.1 > 10.1.3.2) ns3::TcpHeader (49153 > 9 [ACK] Seq=51 Ack=1 Win=32768 ns3::TcpOptionTS(1400;1202) ns3::TcpOptionEnd(EOL)) Payload (size=50)
- 1.4 /NodeList/1/DeviceList/1/$ns3::PointToPointNetDevice/TxQueue/Dequeue ns3::PppHeader (Point-to-Point Protocol: IP (0x0021)) ns3::Ipv4Header (tos 0x0 DSCP Default ECN Not-ECT ttl 64 id 3 protocol 6 offset (bytes) 0 flags [none] length: 102 172.16.1.1 > 10.1.3.2) ns3::TcpHeader (49153 > 9 [ACK] Seq=51 Ack=1 Win=32768 ns3::TcpOptionTS(1400;1202) ns3::TcpOptionEnd(EOL)) Payload (size=50)
r 1.40217 /NodeList/6/DeviceList/1/$ns3::PointToPointNetDevice/MacRx ns3::PppHeader (Point-to-Point Protocol: IP (0x0021)) ns3::Ipv4Header (tos 0x0 DSCP Default ECN Not-ECT ttl 64 id 3 protocol 6 offset (bytes) 0 flags [none] length: 102 172.16.1.1 > 10.1.3.2) ns3::TcpHeader (49153 > 9 [ACK] Seq=51 Ack=1 Win=32768 ns3::TcpOptionTS(1400;1202) ns3::TcpOptionEnd(EOL)) Payload (size=50)
r 1.40217 /NodeList/6/$ns3::Ipv4L3Protocol/Rx(2) ns3::Ipv4Header (tos 0x0 DSCP Default ECN Not-ECT ttl 64 id 3 protocol 6 offset (bytes) 0 flags [none] length: 102 172.16.1.1 > 10.1.3.2) ns3::TcpHeader (49153 > 9 [ACK] Seq=51 Ack=1 Win=32768 ns3::TcpOptionTS(1400;1202) ns3::TcpOptionEnd(EOL)) Payload (size=50)
t 1.6 /NodeList/1/$ns3::Ipv4L3Protocol/Tx(2) ns3::Ipv4Header (tos 0x0 DSCP Default ECN Not-ECT ttl 64 id 4 protocol 6 offset (bytes) 0 flags [none] length: 102 172.16.1.1 > 10.1.3.2) ns3::TcpHeader (49153 > 9 [ACK] Seq=101 Ack=1 Win=32768 ns3::TcpOptionTS(1600;1202) ns3::TcpOptionEnd(EOL)) Payload (size=50)
+ 1.6 /NodeList/1/DeviceList/1/$ns3::PointToPointNetDevice/TxQueue/Enqueue ns3::PppHeader (Point-to-Point Protocol: IP (0x0021)) ns3::Ipv4Header (tos 0x0 DSCP Default ECN Not-ECT ttl 64 id 4 protocol 6 offset (bytes) 0 flags [none] length: 102 172.16.1.1 > 10.1.3.2) ns3::TcpHeader (49153 > 9 [ACK] Seq=101 Ack=1 Win=32768 ns3::TcpOptionTS(1600;1202) ns3::TcpOptionEnd(EOL)) Payload (size=50)
- 1.6 /NodeList/1/DeviceList/1/$ns3::PointToPointNetDevice/TxQueue/Dequeue ns3::PppHeader (Point-to-Point Protocol: IP (0x0021)) ns3::Ipv4Header (tos 0x0 DSCP Default ECN Not-ECT ttl 64 id 4 protocol 6 offset (bytes) 0 flags [none] length: 102 172.16.1.1 > 10.1.3.2) ns3::TcpHeader (49153 > 9 [ACK] Seq=101 Ack=1 Win=32768 ns3::TcpOptionTS(1600;1202) ns3::TcpOptionEnd(EOL)) Payload (size=50)
t 1.60217 /NodeList/6/$ns3::Ipv4L3Protocol/Tx(2) ns3::Ipv4Header (tos 0x0 DSCP Default ECN Not-ECT ttl 64 id 2 protocol 6 offset (bytes) 0 flags [none] length: 52 10.1.3.2 > 172.16.1.1) ns3::TcpHeader (9 > 49153 [ACK] Seq=1 Ack=101 Win=32768 ns3::TcpOptionTS(1602;1400) ns3::TcpOptionEnd(EOL))
+ 1.60217 /NodeList/6/DeviceList/1/$ns3::PointToPointNetDevice/TxQueue/Enqueue ns3::PppHeader (Point-to-Point Protocol: IP (0x0021)) ns3::Ipv4Header (tos 0x0 DSCP Default ECN Not-ECT ttl 64 id 2 protocol 6 offset (bytes) 0 flags [none] length: 52 10.1.3.2 > 172.16.1.1) ns3::TcpHeader (9 > 49153 [ACK] Seq=1 Ack=101 Win=32768 ns3::TcpOptionTS(1602;1400) ns3::TcpOptionEnd(EOL))
- 1.60217 /NodeList/6/DeviceList/1/$ns3::PointToPointNetDevice/TxQueue/Dequeue ns3::PppHeader (Point-to-Point Protocol: IP (0x0021)) ns3::Ipv4Header (tos 0x0 DSCP Default ECN Not-ECT ttl 64 id 2 protocol 6 offset (bytes) 0 flags [none] length: 52 10.1.3.2 > 172.16.1.1) ns3::TcpHeader (9 > 49153 [ACK] Seq=1 Ack=101 Win=32768 ns3::TcpOptionTS(1602;1400) ns3::TcpOptionEnd(EOL))
r 1.60217 /NodeList/6/DeviceList/1/$ns3::PointToPointNetDevice/MacRx ns3::PppHeader (Point-to-Point Protocol: IP (0x0021)) ns3::Ipv4Header (tos 0x0 DSCP Default ECN Not-ECT ttl 64 id 4 protocol 6 offset (bytes) 0 flags [none] length: 102 172.16.1.1 > 10.1.3.2) ns3::TcpHeader (49153 > 9 [ACK] Seq=101 Ack=1 Win=32768 ns3::TcpOptionTS(1600;1202) ns3::TcpOptionEnd(EOL)) Payload (size=50)
r 1.60217 /NodeList/6/$ns3::Ipv4L3Protocol/Rx(2) ns3::Ipv4Header (tos 0x0 DSCP Default ECN Not-ECT ttl 64 id 4 protocol 6 offset (bytes) 0 flags [none] length: 102 172.16.1.1 > 10.1.3.2) ns3::TcpHeader (49153 > 9 [ACK] Seq=101 Ack=1 Win=32768 ns3::TcpOptionTS(1600;1202) ns3::TcpOptionEnd(EOL)) Payload (size=50)
r 1.60425 /NodeList/1/DeviceList/1/$ns3::PointToPointNetDevice/MacRx ns3::PppHeader (Point-to-Point Protocol: IP (0x0021)) ns3::Ipv4Header (tos 0x0 DSCP Default ECN Not-ECT ttl 64 id 2 protocol 6 offset (bytes) 0 flags [none] length: 52 10.1.3.2 > 172.16.1.1) ns3::TcpHeader (9 > 49153 [ACK] Seq=1 Ack=101 Win=32768 ns3::TcpOptionTS(1602;1400) ns3::TcpOptionEnd(EOL))
r 1.60425 /NodeList/1/$ns3::Ipv4L3Protocol/Rx(2) ns3::Ipv4Header (tos 0x0 DSCP Default ECN Not-ECT ttl 64 id 2 protocol 6 offset (bytes) 0 flags [none] length: 52 10.1.3.2 > 172.16.1.1) ns3::TcpHeader (9 > 49153 [ACK] Seq=1 Ack=101 Win=32768 ns3::TcpOptionTS(1602;1400) ns3::TcpOptionEnd(EOL))
t 1.8 /NodeList/1/$ns3::Ipv4L3Protocol/Tx(2) ns3::Ipv4Header (tos 0x0 DSCP Default ECN Not-ECT ttl 64 id 5 protocol 6 offset (bytes) 0 flags [none] length: 102 172.16.1.1 > 10.1.3.2) ns3::TcpHeader (49153 > 9 [ACK] Seq=151 Ack=1 Win=32768 ns3::TcpOptionTS(1800;1602) ns3::TcpOptionEnd(EOL)) Payload (size=50)
+ 1.8 /NodeList/1/DeviceList/1/$ns3::PointToPointNetDevice/TxQueue/Enqueue ns3::PppHeader (Point-to-Point Protocol: IP (0x0021)) ns3::Ipv4Header (tos 0x0 DSCP Default ECN Not-ECT ttl 64 id 5 protocol 6 offset (bytes) 0 flags [none] length: 102 172.16.1.1 > 10.1.3.2) ns3::TcpHeader (49153 > 9 [ACK] Seq=151 Ack=1 Win=32768 ns3::TcpOptionTS(1800;1602) ns3::TcpOptionEnd(EOL)) Payload (size=50)
- 1.8 /NodeList/1/DeviceList/1/$ns3::PointToPointNetDevice/TxQueue/Dequeue ns3::PppHeader (Point-to-Point Protocol: IP (0x0021)) ns3::Ipv4Header (tos 0x0 DSCP Default ECN Not-ECT ttl 64 id 5 protocol 6 offset (bytes) 0 flags [none] length: 102 172.16.1.1 > 10.1.3.2) ns3::TcpHeader (49153 > 9 [ACK] Seq=151 Ack=1 Win=32768 ns3::TcpOptionTS(1800;1602) ns3::TcpOptionEnd(EOL)) Payload (size=50)
t 1.80217 /NodeList/6/$ns3::Ipv4L3Protocol/Tx(2) ns3::Ipv4Header (tos 0x0 DSCP Default ECN Not-ECT ttl 64 id 3 protocol 6 offset (bytes) 0 flags [none] length: 52 10.1.3.2 > 172.16.1.1) ns3::TcpHeader (9 > 49153 [ACK] Seq=1 Ack=151 Win=32768 ns3::TcpOptionTS(1802;1600) ns3::TcpOptionEnd(EOL))
+ 1.80217 /NodeList/6/DeviceList/1/$ns3::PointToPointNetDevice/TxQueue/Enqueue ns3::PppHeader (Point-to-Point Protocol: IP (0x0021)) ns3::Ipv4Header (tos 0x0 DSCP Default ECN Not-ECT ttl 64 id 3 protocol 6 offset (bytes) 0 flags [none] length: 52 10.1.3.2 > 172.16.1.1) ns3::TcpHeader (9 > 49153 [ACK] Seq=1 Ack=151 Win=32768 ns3::TcpOptionTS(1802;1600) ns3::TcpOptionEnd(EOL))
- 1.80217 /NodeList/6/DeviceList/1/$ns3::PointToPointNetDevice/TxQueue/Dequeue ns3::PppHeader (Point-to-Point Protocol: IP (0x0021)) ns3::Ipv4Header (tos 0x0 DSCP Default ECN Not-ECT ttl 64 id 3 protocol 6 offset (bytes) 0 flags [none] length: 52 10.1.3.2 > 172.16.1.1) ns3::TcpHeader (9 > 49153 [ACK] Seq=1 Ack=151 Win=32768 ns3::TcpOptionTS(1802;1600) ns3::TcpOptionEnd(EOL))
r 1.80217 /NodeList/6/DeviceList/1/$ns3::PointToPointNetDevice/MacRx ns3::PppHeader (Point-to-Point Protocol: IP (0x0021)) ns3::Ipv4Header (tos 0x0 DSCP Default ECN Not-ECT ttl 64 id 5 protocol 6 offset (bytes) 0 flags [none] length: 102 172.16.1.1 > 10.1.3.2) ns3::TcpHeader (49153 > 9 [ACK] Seq=151 Ack=1 Win=32768 ns3::TcpOptionTS(1800;1602) ns3::TcpOptionEnd(EOL)) Payload (size=50)
r 1.80217 /NodeList/6/$ns3::Ipv4L3Protocol/Rx(2) ns3::Ipv4Header (tos 0x0 DSCP Default ECN Not-ECT ttl 64 id 5 protocol 6 offset (bytes) 0 flags [none] length: 102 172.16.1.1 > 10.1.3.2) ns3::TcpHeader (49153 > 9 [ACK] Seq=151 Ack=1 Win=32768 ns3::TcpOptionTS(1800;1602) ns3::TcpOptionEnd(EOL)) Payload (size=50)
r 1.80425 /NodeList/1/DeviceList/1/$ns3::PointToPointNetDevice/MacRx ns3::PppHeader (Point-to-Point Protocol: IP (0x0021)) ns3::Ipv4Header (tos 0x0 DSCP Default ECN Not-ECT ttl 64 id 3 protocol 6 offset (bytes) 0 flags [none] length: 52 10.1.3.2 > 172.16.1.1) ns3::TcpHeader (9 > 49153 [ACK] Seq=1 Ack=151 Win=32768 ns3::TcpOptionTS(1802;1600) ns3::TcpOptionEnd(EOL))
r 1.80425 /NodeList/1/$ns3::Ipv4L3Protocol/Rx(2) ns3::Ipv4Header (tos 0x0 DSCP Default ECN Not-ECT ttl 64 id 3 protocol 6 offset (bytes) 0 flags [none] length: 52 10.1.3.2 > 172.16.1.1) ns3::TcpHeader (9 > 49153 [ACK] Seq=1 Ack=151 Win=32768 ns3::TcpOptionTS(1802;1600) ns3::TcpOptionEnd(EOL))
t 2 /NodeList/1/$ns3::Ipv4L3Protocol/Tx(1) ns3::Ipv4Header (tos 0x0 DSCP Default ECN Not-ECT ttl 64 id 6 protocol 6 offset (bytes) 0 flags [none] length: 102 172.16.1.1 > 10.1.3.2) ns3::TcpHeader (49153 > 9 [ACK] Seq=201 Ack=1 Win=32768 ns3::TcpOptionTS(2000;1802) ns3::TcpOptionEnd(EOL)) Payload (size=50)
+ 2 /NodeList/1/DeviceList/2/$ns3::PointToPointNetDevice/TxQueue/Enqueue ns3::PppHeader (Point-to-Point Protocol: IP (0x0021)) ns3::Ipv4Header (tos 0x0 DSCP Default ECN Not-ECT ttl 64 id 6 protocol 6 offset (bytes) 0 flags [none] length: 102 172.16.1.1 > 10.1.3.2) ns3::TcpHeader (49153 > 9 [ACK] Seq=201 Ack=1 Win=32768 ns3::TcpOptionTS(2000;1802) ns3::TcpOptionEnd(EOL)) Payload (size=50)
- 2 /NodeList/1/DeviceList/2/$ns3::PointToPointNetDevice/TxQueue/Dequeue ns3::PppHeader (Point-to-Point Protocol: IP (0x0021)) ns3::Ipv4Header (tos 0x0 DSCP Default ECN Not-ECT ttl 64 id 6 protocol 6 offset (bytes) 0 flags [none] length: 102 172.16.1.1 > 10.1.3.2) ns3::TcpHeader (49153 > 9 [ACK] Seq=201 Ack=1 Win=32768 ns3::TcpOptionTS(2000;1802) ns3::TcpOptionEnd(EOL)) Payload (size=50)
t 2.00217 /NodeList/6/$ns3::Ipv4L3Protocol/Tx(2) ns3::Ipv4Header (tos 0x0 DSCP Default ECN Not-ECT ttl 64 id 4 protocol 6 offset (bytes) 0 flags [none] length: 52 10.1.3.2 > 172.16.1.1) ns3::TcpHeader (9 > 49153 [ACK] Seq=1 Ack=201 Win=32768 ns3::TcpOptionTS(2002;1800) ns3::TcpOptionEnd(EOL))
+ 2.00217 /NodeList/6/DeviceList/1/$ns3::PointToPointNetDevice/TxQueue/Enqueue ns3::PppHeader (Point-to-Point Protocol: IP (0x0021)) ns3::Ipv4Header (tos 0x0 DSCP Default ECN Not-ECT ttl 64 id 4 protocol 6 offset (bytes) 0 flags [none] length: 52 10.1.3.2 > 172.16.1.1) ns3::TcpHeader (9 > 49153 [ACK] Seq=1 Ack=201 Win=32768 ns3::TcpOptionTS(2002;1800) ns3::TcpOptionEnd(EOL))
- 2.00217 /NodeList/6/DeviceList/1/$ns3::PointToPointNetDevice/TxQueue/Dequeue ns3::PppHeader (Point-to-Point Protocol: IP (0x0021)) ns3::Ipv4Header (tos 0x0 DSCP Default ECN Not-ECT ttl 64 id 4 protocol 6 offset (bytes) 0 flags [none] length: 52 10.1.3.2 > 172.16.1.1) ns3::TcpHeader (9 > 49153 [ACK] Seq=1 Ack=201 Win=32768 ns3::TcpOptionTS(2002;1800) ns3::TcpOptionEnd(EOL))
r 2.00217 /NodeList/2/DeviceList/2/$ns3::PointToPointNetDevice/MacRx ns3::PppHeader (Point-to-Point Protocol: IP (0x0021)) ns3::Ipv4Header (tos 0x0 DSCP Default ECN Not-ECT ttl 64 id 6 protocol 6 offset (bytes) 0 flags [none] length: 102 172.16.1.1 > 10.1.3.2) ns3::TcpHeader (49153 > 9 [ACK] Seq=201 Ack=1 Win=32768 ns3::TcpOptionTS(2000;1802) ns3::TcpOptionEnd(EOL)) Payload (size=50)
r 2.00217 /NodeList/2/$ns3::Ipv4L3Protocol/Rx(2) ns3::Ipv4Header (tos 0x0 DSCP Default ECN Not-ECT ttl 64 id 6 protocol 6 offset (bytes) 0 flags [none] length: 102 172.16.1.1 > 10.1.3.2) ns3::TcpHeader (49153 > 9 [ACK] Seq=201 Ack=1 Win=32768 ns3::TcpOptionTS(2000;1802) ns3::TcpOptionEnd(EOL)) Payload (size=50)
t 2.00217 /NodeList/2/$ns3::Ipv4L3Protocol/Tx(3) ns3::Ipv4Header (tos 0x0 DSCP Default ECN Not-ECT ttl 63 id 6 protocol 6 offset (bytes) 0 flags [none] length: 102 172.16.1.1 > 10.1.3.2) ns3::TcpHeader (49153 > 9 [ACK] Seq=201 Ack=1 Win=32768 ns3::TcpOptionTS(2000;1802) ns3::TcpOptionEnd(EOL)) Payload (size=50)
r 2.00425 /NodeList/1/DeviceList/1/$ns3::PointToPointNetDevice/MacRx ns3::PppHeader (Point-to-Point Protocol: IP (0x0021)) ns3::Ipv4Header (tos 0x0 DSCP Default ECN Not-ECT ttl 64 id 4 protocol 6 offset (bytes) 0 flags [none] length: 52 10.1.3.2 > 172.16.1.1) ns3::TcpHeader (9 > 49153 [ACK] Seq=1 Ack=201 Win=32768 ns3::TcpOptionTS(2002;1800) ns3::TcpOptionEnd(EOL))
d 2.00425 /NodeList/1/$ns3::Ipv4L3Protocol/Drop(2) ns3::Ipv4Header (tos 0x0 DSCP Default ECN Not-ECT ttl 64 id 4 protocol 6 offset (bytes) 0 flags [none] length: 52 10.1.3.2 > 172.16.1.1) ns3::TcpHeader (9 > 49153 [ACK] Seq=1 Ack=201 Win=32768 ns3::TcpOptionTS(2002;1800) ns3::TcpOptionEnd(EOL))
+ 2.01117 /NodeList/2/DeviceList/3/$ns3::CsmaNetDevice/TxQueue/Enqueue ns3::EthernetHeader ( length/type=0x806, source=00:00:00:00:00:09, destination=ff:ff:ff:ff:ff:ff) ns3::ArpHeader (request source mac: 00-06-00:00:00:00:00:09 source ipv4: 10.250.1.1 dest ipv4: 10.250.1.4) Payload (size=18) ns3::EthernetTrailer (fcs=0)
- 2.01117 /NodeList/2/DeviceList/3/$ns3::CsmaNetDevice/TxQueue/Dequeue ns3::EthernetHeader ( length/type=0x806, source=00:00:00:00:00:09, destination=ff:ff:ff:ff:ff:ff) ns3::ArpHeader (request source mac: 00-06-00:00:00:00:00:09 source ipv4: 10.250.1.1 dest ipv4: 10.250.1.4) Payload (size=18) ns3::EthernetTrailer (fcs=0)
r 2.01327 /NodeList/3/DeviceList/1/$ns3::CsmaNetDevice/MacRx ns3::EthernetHeader ( length/type=0x806, source=00:00:00:00:00:09, destination=ff:ff:ff:ff:ff:ff) ns3::ArpHeader (request source mac: 00-06-00:00:00:00:00:09 source ipv4: 10.250.1.1 dest ipv4: 10.250.1.4) Payload (size=18) ns3::EthernetTrailer (fcs=0)
r 2.01327 /NodeList/4/DeviceList/1/$ns3::CsmaNetDevice/MacRx ns3::EthernetHeader ( length/type=0x806, source=00:00:00:00:00:09, destination=ff:ff:ff:ff:ff:ff) ns3::ArpHeader (request source mac: 00-06-00:00:00:00:00:09 source ipv4: 10.250.1.1 dest ipv4: 10.250.1.4) Payload (size=18) ns3::EthernetTrailer (fcs=0)
r 2.01327 /NodeList/5/DeviceList/2/$ns3::CsmaNetDevice/MacRx ns3::EthernetHeader ( length/type=0x806, source=00:00:00:00:00:09, destination=ff:ff:ff:ff:ff:ff) ns3::ArpHeader (request source mac: 00-06-00:00:00:00:00:09 source ipv4: 10.250.1.1 dest ipv4: 10.250.1.4) Payload (size=18) ns3::EthernetTrailer (fcs=0)
+ 2.01327 /NodeList/5/DeviceList/2/$ns3::CsmaNetDevice/TxQueue/Enqueue ns3::EthernetHeader ( length/type=0x806, source=00:00:00:00:00:0c, destination=00:00:00:00:00:09) ns3::ArpHeader (reply source mac: 00-06-00:00:00:00:00:0c source ipv4: 10.250.1.4 dest mac: 00-06-00:00:00:00:00:09 dest ipv4: 10.250.1.1) Payload (size=18) ns3::EthernetTrailer (fcs=0)
- 2.01327 /NodeList/5/DeviceList/2/$ns3::CsmaNetDevice/TxQueue/Dequeue ns3::EthernetHeader ( length/type=0x806, source=00:00:00:00:00:0c, destination=00:00:00:00:00:09) ns3::ArpHeader (reply source mac: 00-06-00:00:00:00:00:0c source ipv4: 10.250.1.4 dest mac: 00-06-00:00:00:00:00:09 dest ipv4: 10.250.1.1) Payload (size=18) ns3::EthernetTrailer (fcs=0)
r 2.01537 /NodeList/2/DeviceList/3/$ns3::CsmaNetDevice/MacRx ns3::EthernetHeader ( length/type=0x806, source=00:00:00:00:00:0c, destination=00:00:00:00:00:09) ns3::ArpHeader (reply source mac: 00-06-00:00:00:00:00:0c source ipv4: 10.250.1.4 dest mac: 00-06-00:00:00:00:00:09 dest ipv4: 10.250.1.1) Payload (size=18) ns3::EthernetTrailer (fcs=0)
+ 2.01537 /NodeList/2/DeviceList/3/$ns3::CsmaNetDevice/TxQueue/Enqueue ns3::EthernetHeader ( length/type=0x800, source=00:00:00:00:00:09, destination=00:00:00:00:00:0c) ns3::Ipv4Header (tos 0x0 DSCP Default ECN Not-ECT ttl 63 id 6 protocol 6 offset (bytes) 0 flags [none] length: 102 172.16.1.1 > 10.1.3.2) ns3::TcpHeader (49153 > 9 [ACK] Seq=201 Ack=1 Win=32768 ns3::TcpOptionTS(2000;1802) ns3::TcpOptionEnd(EOL)) Payload (size=50) ns3::EthernetTrailer (fcs=0)
- 2.01537 /NodeList/2/DeviceList/3/$ns3::CsmaNetDevice/TxQueue/Dequeue ns3::EthernetHeader ( length/type=0x800, source=00:00:00:00:00:09, destination=00:00:00:00:00:0c) ns3::Ipv4Header (tos 0x0 DSCP Default ECN Not-ECT ttl 63 id 6 protocol 6 offset (bytes) 0 flags [none] length: 102 172.16.1.1 > 10.1.3.2) ns3::TcpHeader (49153 > 9 [ACK] Seq=201 Ack=1 Win=32768 ns3::TcpOptionTS(2000;1802) ns3::TcpOptionEnd(EOL)) Payload (size=50) ns3::EthernetTrailer (fcs=0)
r 2.01757 /NodeList/5/DeviceList/2/$ns3::CsmaNetDevice/MacRx ns3::EthernetHeader ( length/type=0x800, source=00:00:00:00:00:09, destination=00:00:00:00:00:0c) ns3::Ipv4Header (tos 0x0 DSCP Default ECN Not-ECT ttl 63 id 6 protocol 6 offset (bytes) 0 flags [none] length: 102 172.16.1.1 > 10.1.3.2) ns3::TcpHeader (49153 > 9 [ACK] Seq=201 Ack=1 Win=32768 ns3::TcpOptionTS(2000;1802) ns3::TcpOptionEnd(EOL)) Payload (size=50) ns3::EthernetTrailer (fcs=0)
r 2.01757 /NodeList/5/$ns3::Ipv4L3Protocol/Rx(2) ns3::Ipv4Header (tos 0x0 DSCP Default ECN Not-ECT ttl 63 id 6 protocol 6 offset (bytes) 0 flags [none] length: 102 172.16.1.1 > 10.1.3.2) ns3::TcpHeader (49153 > 9 [ACK] Seq=201 Ack=1 Win=32768 ns3::TcpOptionTS(2000;1802) ns3::TcpOptionEnd(EOL)) Payload (size=50)
t 2.01757 /NodeList/5/$ns3::Ipv4L3Protocol/Tx(1) ns3::Ipv4Header (tos 0x0 DSCP Default ECN Not-ECT ttl 62 id 6 protocol 6 offset (bytes) 0 flags [none] length: 102 172.16.1.1 > 10.1.3.2) ns3::TcpHeader (49153 > 9 [ACK] Seq=201 Ack=1 Win=32768 ns3::TcpOptionTS(2000;1802) ns3::TcpOptionEnd(EOL)) Payload (size=50)
+ 2.01757 /NodeList/5/DeviceList/1/$ns3::PointToPointNetDevice/TxQueue/Enqueue ns3::PppHeader (Point-to-Point Protocol: IP (0x0021)) ns3::Ipv4Header (tos 0x0 DSCP Default ECN Not-ECT ttl 62 id 6 protocol 6 offset (bytes) 0 flags [none] length: 102 172.16.1.1 > 10.1.3.2) ns3::TcpHeader (49153 > 9 [ACK] Seq=201 Ack=1 Win=32768 ns3::TcpOptionTS(2000;1802) ns3::TcpOptionEnd(EOL)) Payload (size=50)
- 2.01757 /NodeList/5/DeviceList/1/$ns3::PointToPointNetDevice/TxQueue/Dequeue ns3::PppHeader (Point-to-Point Protocol: IP (0x0021)) ns3::Ipv4Header (tos 0x0 DSCP Default ECN Not-ECT ttl 62 id 6 protocol 6 offset (bytes) 0 flags [none] length: 102 172.16.1.1 > 10.1.3.2) ns3::TcpHeader (49153 > 9 [ACK] Seq=201 Ack=1 Win=32768 ns3::TcpOptionTS(2000;1802) ns3::TcpOptionEnd(EOL)) Payload (size=50)
r 2.02812 /NodeList/6/DeviceList/2/$ns3::PointToPointNetDevice/MacRx ns3::PppHeader (Point-to-Point Protocol: IP (0x0021)) ns3::Ipv4Header (tos 0x0 DSCP Default ECN Not-ECT ttl 62 id 6 protocol 6 offset (bytes) 0 flags [none] length: 102 172.16.1.1 > 10.1.3.2) ns3::TcpHeader (49153 > 9 [ACK] Seq=201 Ack=1 Win=32768 ns3::TcpOptionTS(2000;1802) ns3::TcpOptionEnd(EOL)) Payload (size=50)
r 2.02812 /NodeList/6/$ns3::Ipv4L3Protocol/Rx(1) ns3::Ipv4Header (tos 0x0 DSCP Default ECN Not-ECT ttl 62 id 6 protocol 6 offset (bytes) 0 flags [none] length: 102 172.16.1.1 > 10.1.3.2) ns3::TcpHeader (49153 > 9 [ACK] Seq=201 Ack=1 Win=32768 ns3::TcpOptionTS(2000;1802) ns3::TcpOptionEnd(EOL)) Payload (size=50)
t 2.2 /NodeList/1/$ns3::Ipv4L3Protocol/Tx(1) ns3::Ipv4Header (tos 0x0 DSCP Default ECN Not-ECT ttl 64 id 7 protocol 6 offset (bytes) 0 flags [none] length: 102 172.16.1.1 > 10.1.3.2) ns3::TcpHeader (49153 > 9 [ACK] Seq=251 Ack=1 Win=32768 ns3::TcpOptionTS(2200;1802) ns3::TcpOptionEnd(EOL)) Payload (size=50)
+ 2.2 /NodeList/1/DeviceList/2/$ns3::PointToPointNetDevice/TxQueue/Enqueue ns3::PppHeader (Point-to-Point Protocol: IP (0x0021)) ns3::Ipv4Header (tos 0x0 DSCP Default ECN Not-ECT ttl 64 id 7 protocol 6 offset (bytes) 0 flags [none] length: 102 172.16.1.1 > 10.1.3.2) ns3::TcpHeader (49153 > 9 [ACK] Seq=251 Ack=1 Win=32768 ns3::TcpOptionTS(2200;1802) ns3::TcpOptionEnd(EOL)) Payload (size=50)
- 2.2 /NodeList/1/DeviceList/2/$ns3::PointToPointNetDevice/TxQueue/Dequeue ns3::PppHeader (Point-to-Point Protocol: IP (0x0021)) ns3::Ipv4Header (tos 0x0 DSCP Default ECN Not-ECT ttl 64 id 7 protocol 6 offset (bytes) 0 flags [none] length: 102 172.16.1.1 > 10.1.3.2) ns3::TcpHeader (49153 > 9 [ACK] Seq=251 Ack=1 Win=32768 ns3::TcpOptionTS(2200;1802) ns3::TcpOptionEnd(EOL)) Payload (size=50)
r 2.20217 /NodeList/2/DeviceList/2/$ns3::PointToPointNetDevice/MacRx ns3::PppHeader (Point-to-Point Protocol: IP (0x0021)) ns3::Ipv4Header (tos 0x0 DSCP Default ECN Not-ECT ttl 64 id 7 protocol 6 offset (bytes) 0 flags [none] length: 102 172.16.1.1 > 10.1.3.2) ns3::TcpHeader (49153 > 9 [ACK] Seq=251 Ack=1 Win=32768 ns3::TcpOptionTS(2200;1802) ns3::TcpOptionEnd(EOL)) Payload (size=50)
r 2.20217 /NodeList/2/$ns3::Ipv4L3Protocol/Rx(2) ns3::Ipv4Header (tos 0x0 DSCP Default ECN Not-ECT ttl 64 id 7 protocol 6 offset (bytes) 0 flags [none] length: 102 172.16.1.1 > 10.1.3.2) ns3::TcpHeader (49153 > 9 [ACK] Seq=251 Ack=1 Win=32768 ns3::TcpOptionTS(2200;1802) ns3::TcpOptionEnd(EOL)) Payload (size=50)